&FCI NORB= 10,NELEC= 12,MS2= 0,
  ORBSYM=1,5,1,5,2,3,1,6,7,5,
  ISYM=1,
&END
   0.1967197513302177E+01   1   1   1   1
  -0.7411008669266396E-11   2   1   1   1
   0.1967103687430342E+01   2   2   1   1
   0.1540953754172533E+01   2   1   2   1
   0.7405058838794339E-11   2   2   2   1
   0.1967010923669941E+01   2   2   2   2
  -0.1792404170533892E+00   3   1   1   1
   0.4571573341101897E-12   3   2   1   1
   0.6816834372366797E+00   3   3   1   1
   0.4442425905761514E-12   3   1   2   1
  -0.1845066085305204E+00   3   2   2   1
  -0.1715919344547762E-14   3   3   2   1
  -0.1791781408755269E+00   3   1   2   2
  -0.1316663188796318E-11   3   2   2   2
   0.6817532558528097E+00   3   3   2   2
   0.3082577271551024E-01   3   1   3   1
   0.1686203311175713E-15   3   2   3   1
  -0.2532027519713003E-02   3   3   3   1
   0.3066937658309586E-01   3   2   3   2
  -0.5786170154120640E-14   3   3   3   2
   0.6150557466069438E+00   3   3   3   3
   0.1211481856554995E-11   4   1   1   1
  -0.1727484482379074E+00   4   2   1   1
  -0.8450325298715606E-12   4   3   1   1
   0.5891384800510752E+00   4   4   1   1
  -0.1657849528371005E+00   4   1   2   1
  -0.3990403110041760E-12   4   2   2   1
   0.1758386738894542E+00   4   3   2   1
   0.1696640874668254E-15   4   4   2   1
  -0.3824437511470991E-12   4   1   2   2
  -0.1727556227265014E+00   4   2   2   2
   0.8455943736017379E-12   4   3   2   2
   0.5891009520625392E+00   4   4   2   2
  -0.1260580080261493E-12   4   1   3   1
   0.2614585866538380E-01   4   2   3   1
   0.2267350668111109E-13   4   3   3   1
  -0.1176782694934995E-01   4   4   3   1
   0.2630095715496403E-01   4   1   3   2
   0.1260728039976719E-12   4   2   3   2
  -0.9421059667392291E-02   4   3   3   2
  -0.2822308359240466E-13   4   4   3   2
   0.4007363017810572E-13   4   1   3   3
  -0.1676937442041346E-01   4   2   3   3
   0.2172741153660951E-15   4   3   3   3
   0.4524376571558448E+00   4   4   3   3
   0.2752407787192702E-01   4   1   4   1
  -0.3750251079462624E-15   4   2   4   1
  -0.4563496579161551E-02   4   3   4   1
   0.1201572478667923E-13   4   4   4   1
   0.2774564956002058E-01   4   2   4   2
  -0.1111464436112652E-13   4   3   4   2
  -0.5145010532881486E-02   4   4   4   2
   0.6924440341864335E-01   4   3   4   3
   0.1179611963664229E-15   4   4   4   3
   0.4802648027968843E+00   4   4   4   4
  -0.3830345447636060E-15   5   1   1   1
  -0.4799072272256543E-15   5   2   1   1
   0.5587476383815321E-16   5   3   1   1
  -0.1534728441477766E-15   5   4   1   1
   0.6071164722064802E+00   5   5   1   1
  -0.5439547152316407E-15   5   1   2   1
  -0.4355192843071837E-15   5   2   2   1
   0.7855989775171648E-15   5   3   2   1
   0.3890164396972401E-15   5   4   2   1
  -0.2783350264677631E-15   5   5   2   1
  -0.3899232331051668E-15   5   1   2   2
  -0.4797478804227803E-15   5   2   2   2
   0.4474197821692595E-16   5   3   2   2
  -0.1535219342137052E-15   5   4   2   2
   0.6071635936488882E+00   5   5   2   2
   0.4475885644977123E-16   5   1   3   1
   0.9802425878267957E-16   5   2   3   1
  -0.1355421925442554E-16   5   3   3   1
  -0.3173649126111899E-16   5   4   3   1
  -0.2537294189323019E-02   5   5   3   1
   0.9938311951292308E-16   5   1   3   2
   0.4415777444907139E-16   5   2   3   2
  -0.1907927712791586E-16   5   3   3   2
  -0.3976368968103649E-16   5   4   3   2
  -0.5966147714753234E-14   5   5   3   2
  -0.8306185506130879E-16   5   1   3   3
   0.6461479314251134E-16   5   2   3   3
  -0.1473386526452169E-15   5   3   3   3
  -0.4159555963383789E-15   5   4   3   3
   0.5345333886770555E+00   5   5   3   3
   0.6394926713692672E-16   5   1   4   1
   0.5632993451380790E-16   5   2   4   1
  -0.8125893322080391E-16   5   3   4   1
   0.1969359227756899E-17   5   4   4   1
   0.1807592703989558E-13   5   5   4   1
   0.5207001366541386E-16   5   1   4   2
   0.6626383477833356E-16   5   2   4   2
  -0.1603221946857023E-16   5   3   4   2
  -0.2412859529502735E-16   5   4   4   2
  -0.7639495783797357E-02   5   5   4   2
  -0.6048511603498945E-16   5   1   4   3
  -0.5580577170338593E-16   5   2   4   3
  -0.9460847683996329E-16   5   3   4   3
   0.1352325777278036E-15   5   4   4   3
   0.4232725281383409E-15   5   5   4   3
  -0.3115258634990274E-16   5   1   4   4
   0.6755077604038879E-17   5   2   4   4
   0.6543040255863507E-16   5   3   4   4
  -0.2969531780329050E-15   5   4   4   4
   0.4499303821075381E+00   5   5   4   4
   0.9537088186450359E-02   5   1   5   1
   0.1346767986574234E-14   5   2   5   1
   0.1618277085268034E-01   5   3   5   1
  -0.2539470844438278E-13   5   4   5   1
  -0.1034955659503819E-16   5   5   5   1
   0.8978903260224430E-02   5   2   5   2
   0.3889694556030721E-13   5   3   5   2
   0.1058186087808703E-01   5   4   5   2
   0.1871594751115657E-15   5   5   5   2
   0.9431136383768100E-01   5   3   5   3
   0.2177077962350893E-15   5   4   5   3
   0.1536453291399591E-15   5   5   5   3
   0.4457799707842362E-01   5   4   5   4
   0.2012049664273990E-16   5   5   5   4
   0.5192575236959867E+00   5   5   5   5
   0.6659811172108839E-16   6   1   1   1
  -0.2325071933671237E-15   6   2   1   1
   0.5259045730567838E-16   6   3   1   1
  -0.1069803928107918E-15   6   4   1   1
  -0.7263013044497119E-15   6   5   1   1
   0.6071164722064807E+00   6   6   1   1
  -0.3648063808404641E-15   6   1   2   1
  -0.2988120575309630E-16   6   2   2   1
   0.4891083350458170E-15   6   3   2   1
  -0.1473634628063608E-15   6   4   2   1
   0.2790875975776898E-15   6   5   2   1
  -0.7234881096995771E-15   6   6   2   1
   0.6089798134987592E-16   6   1   2   2
  -0.2292750168591645E-15   6   2   2   2
   0.4320748041239258E-16   6   3   2   2
  -0.1034424307488454E-15   6   4   2   2
  -0.7263576764393151E-15   6   5   2   2
   0.6071635936488886E+00   6   6   2   2
   0.2920104040286457E-17   6   1   3   1
   0.6195621720301845E-16   6   2   3   1
   0.2531794740918089E-16   6   3   3   1
  -0.2873010053008286E-16   6   4   3   1
   0.3035397924208759E-17   6   5   3   1
  -0.2537294189323010E-02   6   6   3   1
   0.6482328883625507E-16   6   1   3   2
   0.4095322641001596E-18   6   2   3   2
  -0.1440323905769084E-16   6   3   3   2
   0.8959507582391541E-17   6   4   3   2
  -0.9571446416761182E-17   6   5   3   2
  -0.5943162628696541E-14   6   6   3   2
   0.5894446503723251E-16   6   1   3   3
   0.1112445491330246E-15   6   2   3   3
   0.1603042345051089E-15   6   3   3   3
  -0.2974653704412302E-15   6   4   3   3
  -0.6394692208833955E-15   6   5   3   3
   0.5345333886770558E+00   6   6   3   3
   0.3845982780667230E-16   6   1   4   1
  -0.2994895420185956E-17   6   2   4   1
  -0.6400147516588837E-16   6   3   4   1
   0.8164289986236216E-17   6   4   4   1
  -0.3044044930363838E-17   6   5   4   1
   0.1810904941626501E-13   6   6   4   1
  -0.7377851736527262E-17   6   1   4   2
   0.4054646673938909E-16   6   2   4   2
  -0.4481422825669908E-17   6   3   4   2
  -0.1634026908707755E-16   6   4   4   2
   0.9139227820536070E-17   6   5   4   2
  -0.7639495783797359E-02   6   6   4   2
  -0.5270794501266303E-16   6   1   4   3
  -0.1441829655643201E-16   6   2   4   3
  -0.1203483278080626E-15   6   3   4   3
  -0.3372836765320347E-16   6   4   4   3
   0.1148443176940116E-15   6   5   4   3
   0.3122502256758253E-15   6   6   4   3
   0.3068403288250816E-16   6   1   4   4
   0.5426543316782322E-16   6   2   4   4
   0.5858837330618139E-16   6   3   4   4
  -0.2233087470138117E-15   6   4   4   4
  -0.5382575475970934E-15   6   5   4   4
   0.4499303821075384E+00   6   6   4   4
  -0.1140934220631730E-16   6   1   5   1
   0.1313976002521070E-16   6   2   5   1
  -0.1935965851362346E-16   6   3   5   1
   0.1634551259199775E-16   6   4   5   1
  -0.8281230814649988E-17   6   5   5   1
  -0.4302197166277405E-16   6   6   5   1
   0.1283103228284742E-16   6   1   5   2
  -0.1074157834439515E-16   6   2   5   2
   0.1529102738329261E-16   6   3   5   2
  -0.1265921731836682E-16   6   4   5   2
   0.3865394948479205E-16   6   5   5   2
   0.8928106115357105E-16   6   6   5   2
  -0.1935965851363199E-16   6   1   5   3
   0.1883455613184809E-16   6   2   5   3
  -0.1128259069148045E-15   6   3   5   3
   0.6994712768371809E-16   6   4   5   3
  -0.4290340287017043E-16   6   5   5   3
   0.2472657907671154E-16   6   6   5   3
   0.1528624100922201E-16   6   1   5   4
  -0.1265921731836947E-16   6   2   5   4
   0.5608706322562112E-16   6   3   5   4
  -0.5332923567381586E-16   6   4   5   4
   0.7607542257959358E-16   6   5   5   4
  -0.1730539003751304E-15   6   6   5   4
   0.2851733889930273E-16   6   1   5   5
   0.1247510349063708E-15   6   2   5   5
   0.2512362233921937E-16   6   3   5   5
  -0.1070361401632826E-15   6   4   5   5
  -0.6211945056182902E-15   6   5   5   5
   0.4768456014649359E+00   6   6   5   5
   0.9537088186450365E-02   6   1   6   1
   0.1337848729639646E-14   6   2   6   1
   0.1618277085268035E-01   6   3   6   1
  -0.2540597398258126E-13   6   4   6   1
   0.1633620753386801E-16   6   5   6   1
   0.1195487727000236E-16   6   6   6   1
   0.8978903260224437E-02   6   2   6   2
   0.3888165830967516E-13   6   3   6   2
   0.1058186087808703E-01   6   4   6   2
   0.4893920697899707E-16   6   5   6   2
   0.2020589338759557E-15   6   6   6   2
   0.9431136383768106E-01   6   3   6   3
   0.1726049858596923E-15   6   4   6   3
   0.6445937503162410E-16   6   5   6   3
  -0.6068318340112363E-16   6   6   6   3
   0.4457799707842364E-01   6   4   6   4
   0.9658719850893468E-16   6   5   6   4
   0.4511470499590408E-16   6   6   6   4
   0.2120596111552550E-01   6   5   6   5
  -0.6211945056182908E-15   6   6   6   5
   0.5192575236959873E+00   6   6   6   6
  -0.5791337334356592E-01   7   1   1   1
   0.6541054979966208E-13   7   2   1   1
  -0.6628139459381685E-01   7   3   1   1
  -0.9805404914669386E-12   7   4   1   1
   0.3100473224941892E-16   7   5   1   1
  -0.5115337351960551E-16   7   6   1   1
   0.6187899477365261E+00   7   7   1   1
   0.1024993968079036E-12   7   1   2   1
  -0.4261309059796062E-01   7   2   2   1
  -0.1128612109910047E-15   7   3   2   1
   0.2038233768120367E+00   7   4   2   1
   0.8968144490530794E-15   7   5   2   1
   0.7220957598292907E-15   7   6   2   1
  -0.6937945227006304E-15   7   7   2   1
  -0.5799507467166813E-01   7   1   2   2
  -0.3445082354157705E-12   7   2   2   2
  -0.6633623593044902E-01   7   3   2   2
   0.9791491089844830E-12   7   4   2   2
   0.2868954755981500E-16   7   5   2   2
  -0.5286569987633993E-16   7   6   2   2
   0.6187562090636926E+00   7   7   2   2
   0.4465805127596510E-02   7   1   3   1
  -0.9849637923851906E-15   7   2   3   1
  -0.6226922593181506E-02   7   3   3   1
   0.2608971253013209E-13   7   4   3   1
  -0.1099442701529250E-16   7   5   3   1
   0.8792144395272463E-17   7   6   3   1
  -0.7098384788552753E-02   7   7   3   1
  -0.9866781870704333E-15   7   1   3   2
   0.4866737020723538E-02   7   2   3   2
  -0.1500188862024743E-13   7   3   3   2
  -0.1085805511521436E-01   7   4   3   2
  -0.4653535657368033E-16   7   5   3   2
  -0.3635183113741598E-16   7   6   3   2
  -0.1693697265769956E-13   7   7   3   2
  -0.2174286965670480E-01   7   1   3   3
  -0.5245413478571770E-13   7   2   3   3
  -0.1002985600782431E+00   7   3   3   3
  -0.9289444213855802E-15   7   4   3   3
  -0.4853837430258328E-16   7   5   3   3
   0.1282656217379773E-16   7   6   3   3
   0.4965536580452805E+00   7   7   3   3
  -0.5665702248450113E-13   7   1   4   1
   0.1154295489832527E-01   7   2   4   1
  -0.1423119028219968E-13   7   3   4   1
   0.2632368166506820E-02   7   4   4   1
   0.3167012742282859E-17   7   5   4   1
  -0.8156210643608853E-18   7   6   4   1
   0.1179422228284044E-13   7   7   4   1
   0.1202982848518339E-01   7   1   4   2
   0.5666312959205083E-13   7   2   4   2
   0.5903419218315184E-02   7   3   4   2
   0.6194914373147675E-14   7   4   4   2
  -0.5861438176293491E-19   7   5   4   2
  -0.6888952900602054E-17   7   6   4   2
  -0.5044699838810696E-02   7   7   4   2
  -0.7606545601723802E-14   7   1   4   3
   0.3110364156835790E-02   7   2   4   3
  -0.4523291463609524E-15   7   3   4   3
   0.9565230669096134E-01   7   4   4   3
   0.4058179293224728E-15   7   5   4   3
   0.3173670613319451E-15   7   6   4   3
   0.1387778780781446E-16   7   7   4   3
   0.4859420234938371E-02   7   1   4   4
   0.1146001696317178E-13   7   2   4   4
   0.4705526324826679E-02   7   3   4   4
  -0.7285838599102590E-16   7   4   4   4
   0.1029051795990698E-15   7   5   4   4
  -0.7784892621548923E-16   7   6   4   4
   0.4902977986642928E+00   7   7   4   4
   0.1371986513823681E-16   7   1   5   1
   0.4832522479793610E-16   7   2   5   1
  -0.2399447289842096E-17   7   3   5   1
   0.3453880027287566E-16   7   4   5   1
   0.2808432974754020E-02   7   5   5   1
  -0.3359764767400689E-17   7   6   5   1
  -0.4682195816913287E-16   7   7   5   1
   0.4848695231059402E-16   7   1   5   2
   0.1000129409539651E-16   7   2   5   2
   0.1833575151224637E-16   7   3   5   2
  -0.5832639793166435E-16   7   4   5   2
   0.6753603752629456E-14   7   5   5   2
   0.5722065580975806E-17   7   6   5   2
   0.1013387000173858E-15   7   7   5   2
  -0.1024452146231904E-16   7   1   5   3
   0.1173655574359439E-16   7   2   5   3
  -0.5332039221406130E-16   7   3   5   3
   0.4050705159371079E-15   7   4   5   3
   0.4328020476365071E-02   7   5   5   3
  -0.5177666990714176E-17   7   6   5   3
   0.1199619068752294E-16   7   7   5   3
   0.6641866433575609E-16   7   1   5   4
   0.2492496011767851E-19   7   2   5   4
   0.2605326526709089E-15   7   3   5   4
   0.2294800341172774E-15   7   4   5   4
   0.5767955557622884E-16   7   5   5   4
   0.3313075829926789E-16   7   6   5   4
   0.5151536144049132E-16   7   7   5   4
  -0.8677965600962095E-02   7   1   5   5
  -0.2102680009274938E-13   7   2   5   5
  -0.5027513259751364E-01   7   3   5   5
  -0.1526556658859598E-15   7   4   5   5
   0.2414705142677227E-16   7   5   5   5
  -0.3190925155163776E-16   7   6   5   5
   0.4672164371545804E+00   7   7   5   5
  -0.2072083677969614E-17   7   1   6   1
   0.3608483655844489E-16   7   2   6   1
   0.1401432547425252E-17   7   3   6   1
   0.2396234780144993E-16   7   4   6   1
  -0.3359764767398805E-17   7   5   6   1
   0.2808432974754022E-02   7   6   6   1
   0.2563709880677075E-16   7   7   6   1
   0.3315520381310304E-16   7   1   6   2
  -0.3407668909186238E-17   7   2   6   2
   0.2824564772821437E-17   7   3   6   2
  -0.2990282910566666E-16   7   4   6   2
   0.4933790292725309E-17   7   5   6   2
   0.6750080095568878E-14   7   6   6   2
   0.1358555101484069E-15   7   7   6   2
   0.5383836515671056E-17   7   1   6   3
   0.1912010990220557E-16   7   2   6   3
   0.3632841758870762E-16   7   3   6   3
   0.2913840576458050E-15   7   4   6   3
  -0.5177666990714303E-17   7   5   6   3
   0.4328020476365073E-02   7   6   6   3
   0.2654980890434440E-16   7   7   6   3
   0.4771847216295568E-16   7   1   6   4
  -0.9529524902027043E-17   7   2   6   4
   0.1791708047980921E-15   7   3   6   4
  -0.1004392756415747E-15   7   4   6   4
   0.3083642480743575E-16   7   5   6   4
   0.3816391647148976E-16   7   6   6   4
   0.7052853034891037E-16   7   7   6   4
   0.1038156272226128E-16   7   1   6   5
   0.5050331653071729E-17   7   2   6   5
   0.6014479273504301E-16   7   3   6   5
   0.1477633890006469E-15   7   4   6   5
  -0.6670132865603310E-17   7   5   6   5
   0.6979033271455444E-17   7   6   6   5
  -0.5589370792918987E-15   7   7   6   5
  -0.8677965600962102E-02   7   1   6   6
  -0.2103005269926683E-13   7   2   6   6
  -0.5027513259751366E-01   7   3   6   6
  -0.2636779683484749E-15   7   4   6   6
   0.1018898488386225E-16   7   5   6   6
  -0.4524951728284660E-16   7   6   6   6
   0.4672164371545807E+00   7   7   6   6
   0.1286163306206810E-01   7   1   7   1
   0.2726795568855356E-14   7   2   7   1
   0.1518687061063730E-01   7   3   7   1
  -0.3612829978759391E-13   7   4   7   1
   0.1623187921538611E-16   7   5   7   1
  -0.9083720599098202E-17   7   6   7   1
   0.2213995317655972E-04   7   7   7   1
   0.1171527537075736E-01   7   2   7   2
   0.3645949644623392E-13   7   3   7   2
   0.1499848029624127E-01   7   4   7   2
   0.7061691725762715E-16   7   5   7   2
   0.5507475119391936E-16   7   6   7   2
  -0.1483188571960170E-15   7   7   7   2
   0.6298540152334760E-01   7   3   7   3
  -0.2081668171172169E-15   7   4   7   3
   0.4060167993522952E-16   7   5   7   3
  -0.3116041951969608E-16   7   6   7   3
  -0.2331875115382047E-01   7   7   7   3
   0.1763312380268230E+00   7   4   7   4
   0.6745803904468977E-15   7   5   7   4
   0.5376039335992240E-15   7   6   7   4
  -0.5551115123125783E-15   7   7   7   4
   0.2285704797176262E-01   7   5   7   5
  -0.2734418273547138E-16   7   6   7   5
   0.4902651142253410E-16   7   7   7   5
   0.2285704797176263E-01   7   6   7   6
  -0.6665186577479728E-16   7   7   7   6
   0.5241743639933298E+00   7   7   7   7
  -0.1262123566129615E-15   8   1   1   1
   0.2391784832083605E-15   8   2   1   1
   0.6842950482212769E-16   8   3   1   1
  -0.1500842806488832E-15   8   4   1   1
   0.1163448094918147E-11   8   5   1   1
  -0.2314582737297985E-15   8   6   1   1
   0.8002563069768329E-16   8   7   1   1
   0.6420552967050696E+00   8   8   1   1
   0.7378320074918537E-16   8   1   2   1
  -0.9437199285962798E-16   8   2   2   1
   0.1393265814368020E-15   8   3   2   1
   0.1106165435182789E-14   8   4   2   1
  -0.2420869003576265E+00   8   5   2   1
  -0.6367705005566724E-15   8   6   2   1
   0.2797066233576769E-15   8   7   2   1
  -0.5885998069152243E-15   8   8   2   1
  -0.1264865582289132E-15   8   1   2   2
   0.2474872812062997E-15   8   2   2   2
   0.6801158082119828E-16   8   3   2   2
  -0.1396740272865909E-15   8   4   2   2
  -0.1164126561532634E-11   8   5   2   2
  -0.2314686176116475E-15   8   6   2   2
   0.7991046838779855E-16   8   7   2   2
   0.6420959521607875E+00   8   8   2   2
   0.4313264227334786E-17   8   1   3   1
  -0.8346644744363677E-17   8   2   3   1
  -0.6046757036823512E-17   8   3   3   1
   0.6847950323470482E-17   8   4   3   1
  -0.1997683838012368E-13   8   5   3   1
   0.4097775655995586E-17   8   6   3   1
  -0.7656309207746738E-17   8   7   3   1
  -0.6453335174449519E-02   8   8   3   1
  -0.2007028360752847E-17   8   1   3   2
   0.3073396454336026E-17   8   2   3   2
   0.1470268253786413E-16   8   3   3   2
  -0.5474697742267287E-16   8   4   3   2
   0.8302489308323814E-02   8   5   3   2
   0.2183835748617604E-16   8   6   3   2
  -0.1267214981248816E-17   8   7   3   2
  -0.1534970067718078E-13   8   8   3   2
  -0.6624247606366083E-16   8   1   3   3
   0.1592808638666310E-15   8   2   3   3
   0.7247998612570461E-16   8   3   3   3
  -0.1674019314493620E-16   8   4   3   3
  -0.1214306433183765E-16   8   5   3   3
  -0.1658365172135756E-15   8   6   3   3
   0.3810649263430645E-16   8   7   3   3
   0.5195916854295221E+00   8   8   3   3
  -0.1353343940113556E-16   8   1   4   1
   0.5707950630511042E-16   8   2   4   1
  -0.4844287394586885E-17   8   3   4   1
   0.4468374487370553E-16   8   4   4   1
   0.2640473486217039E-02   8   5   4   1
   0.6945339136647909E-17   8   6   4   1
  -0.7166696264904343E-17   8   7   4   1
   0.1823107637077825E-13   8   8   4   1
   0.5457945963289069E-16   8   1   4   2
  -0.1057928242772410E-16   8   2   4   2
   0.3981069418112753E-16   8   3   4   2
   0.1668219094272417E-16   8   4   4   2
   0.6468946472243386E-14   8   5   4   2
   0.2589848593381203E-17   8   6   4   2
   0.2000889686361785E-16   8   7   4   2
  -0.7690572992408118E-02   8   8   4   2
   0.8403877051951647E-17   8   1   4   3
   0.5834304938774880E-16   8   2   4   3
   0.9034828649946349E-16   8   3   4   3
   0.7471779402048940E-15   8   4   4   3
  -0.9961856110961925E-01   8   5   4   3
  -0.2620305391526700E-15   8   6   4   3
   0.1278750655690392E-15   8   7   4   3
   0.1942890293094024E-15   8   8   4   3
   0.5229976853261319E-16   8   1   4   4
   0.1221554979342910E-15   8   2   4   4
   0.3962039856628070E-15   8   3   4   4
  -0.1216661502187231E-15   8   4   4   4
  -0.7372574772901430E-15   8   5   4   4
  -0.1689301644261634E-15   8   6   4   4
   0.3453020604071274E-15   8   7   4   4
   0.4726895193827882E+00   8   8   4   4
   0.5415510484577937E-13   8   1   5   1
  -0.1156777206023983E-01   8   2   5   1
   0.2722513986713575E-13   8   3   5   1
  -0.1476191275503275E-01   8   4   5   1
  -0.9088281003520674E-16   8   5   5   1
  -0.4858406229645722E-16   8   6   5   1
   0.1297331925047274E-13   8   7   5   1
  -0.4040589005764064E-16   8   8   5   1
  -0.1095988113631634E-01   8   1   5   2
  -0.5414822100901703E-13   8   2   5   2
  -0.1131201337037414E-01   8   3   5   2
  -0.3550282355428702E-13   8   4   5   2
   0.5933073193169511E-16   8   5   5   2
   0.1282571558234672E-16   8   6   5   2
  -0.5397629990707138E-02   8   7   5   2
   0.9808718358009367E-16   8   8   5   2
   0.4400061044684822E-13   8   1   5   3
  -0.1828929033427588E-01   8   2   5   3
   0.1977584762613560E-15   8   3   5   3
  -0.6830782335482452E-01   8   4   5   3
  -0.7255685367154211E-15   8   5   5   3
  -0.2183407058039376E-15   8   6   5   3
   0.7372574772901430E-17   8   7   5   3
   0.1802232806469991E-16   8   8   5   3
  -0.1267618642473861E-01   8   1   5   4
  -0.3050706388896263E-13   8   2   5   4
  -0.4101708710748988E-01   8   3   5   4
  -0.2949029909160572E-15   8   4   5   4
  -0.2815987976155115E-15   8   5   5   4
   0.3880072363715718E-16   8   6   5   4
  -0.3000208499920489E-01   8   7   5   4
  -0.2615883803567342E-15   8   8   5   4
  -0.1720020592086916E-15   8   1   5   5
   0.1001907095934105E-15   8   2   5   5
  -0.2982418388796280E-15   8   3   5   5
  -0.2668929483882470E-15   8   4   5   5
  -0.7077671781985367E-15   8   5   5   5
  -0.2042130425985161E-15   8   6   5   5
  -0.1962570872997042E-15   8   7   5   5
   0.5182910259288006E+00   8   8   5   5
  -0.6384649714472597E-17   8   1   6   1
  -0.3042715650554558E-16   8   2   6   1
  -0.3051762674471442E-17   8   3   6   1
  -0.3882882783126453E-16   8   4   6   1
  -0.1492669013803844E-16   8   5   6   1
   0.2598508779423304E-17   8   6   6   1
  -0.4176564900020921E-17   8   7   6   1
   0.2517370025045417E-16   8   8   6   1
  -0.2882819758897973E-16   8   1   6   2
  -0.7222206914298516E-17   8   2   6   2
  -0.2975442457034117E-16   8   3   6   2
  -0.9213713074714601E-17   8   4   6   2
   0.3509262629716979E-16   8   5   6   2
   0.1847736720705470E-17   8   6   6   2
  -0.1419759411156612E-16   8   7   6   2
   0.1268267498029333E-15   8   8   6   2
  -0.3051762674427297E-17   8   1   6   3
  -0.4810702497235749E-16   8   2   6   3
   0.1098859131599007E-16   8   3   6   3
  -0.1796726993708969E-15   8   4   6   3
  -0.2820515587081471E-15   8   5   6   3
   0.2700716244135134E-16   8   6   6   3
  -0.1507296914069027E-16   8   7   6   3
   0.2068066989016071E-16   8   8   6   3
  -0.3334266151080824E-16   8   1   6   4
  -0.9213713074701384E-17   8   2   6   4
  -0.1078888244272158E-15   8   3   6   4
  -0.3790919696219326E-16   8   4   6   4
   0.1015926377527020E-15   8   5   6   4
  -0.8107875732430583E-17   8   6   6   4
  -0.7891564002209590E-16   8   7   6   4
  -0.4524651291306155E-16   8   8   6   4
  -0.4183034149372176E-16   8   1   6   5
   0.1600313732017015E-16   8   2   6   5
  -0.1273362260550027E-15   8   3   6   5
   0.4953746922340343E-16   8   4   6   5
  -0.1756365550909642E-15   8   5   6   5
  -0.3209238430557112E-16   8   6   6   5
  -0.1051822789153334E-15   8   7   6   5
  -0.4654673323830129E-15   8   8   6   5
  -0.5783629843848887E-16   8   1   6   6
   0.1243906386034240E-15   8   2   6   6
   0.6355523674371687E-16   8   3   6   6
  -0.1053485100606986E-15   8   4   6   6
  -0.5342948306008565E-15   8   5   6   6
  -0.1665930736848074E-15   8   6   6   6
   0.5785441699113529E-16   8   7   6   6
   0.4778977630522493E+00   8   8   6   6
   0.3594472258226513E-17   8   1   7   1
   0.1050140869860315E-16   8   2   7   1
  -0.7669290372189740E-17   8   3   7   1
   0.1548950853334723E-16   8   4   7   1
   0.1060513710269412E-13   8   5   7   1
  -0.3413707005990933E-18   8   6   7   1
   0.2864006373331421E-17   8   7   7   1
  -0.4781925981114858E-02   8   8   7   1
   0.1246933345328977E-16   8   1   7   2
   0.3412003675346545E-17   8   2   7   2
   0.2085205006975976E-16   8   3   7   2
   0.2080646515013247E-16   8   4   7   2
  -0.4380772009489677E-02   8   5   7   2
  -0.1152291338848444E-16   8   6   7   2
   0.1703088327819301E-16   8   7   7   2
  -0.1167599003593089E-13   8   8   7   2
   0.8466770621457834E-18   8   1   7   3
   0.1550173515499558E-16   8   2   7   3
  -0.3430300257887937E-16   8   3   7   3
   0.8861723817410336E-16   8   4   7   3
   0.2740863092043355E-15   8   5   7   3
   0.5804204944948575E-18   8   6   7   3
   0.1742273371306094E-16   8   7   7   3
  -0.3078448980310622E-01   8   8   7   3
   0.1443381356227587E-16   8   1   7   4
  -0.4088108858744014E-17   8   2   7   4
   0.1249184702642912E-15   8   3   7   4
   0.7202224491734917E-15   8   4   7   4
  -0.1281733088104963E+00   8   5   7   4
  -0.3371391921194196E-15   8   6   7   4
   0.1720700872278255E-15   8   7   7   4
  -0.3608224830031759E-15   8   8   7   4
   0.9243907722611411E-14   8   1   7   5
  -0.3845500630343922E-02   8   2   7   5
   0.1994931997373331E-16   8   3   7   5
  -0.2548449777020618E-01   8   4   7   5
  -0.6722491058084851E-15   8   5   7   5
  -0.8693728929783525E-16   8   6   7   5
  -0.3122502256758244E-16   8   7   7   5
  -0.3984972195541017E-17   8   8   7   5
  -0.4176564900030683E-17   8   1   7   6
  -0.1011496845826923E-16   8   2   7   6
  -0.1507296914069016E-16   8   3   7   6
  -0.6703285629084588E-16   8   4   7   6
  -0.4517089065617415E-15   8   5   7   6
   0.1642751894969499E-17   8   6   7   6
  -0.1261950717876219E-16   8   7   7   6
  -0.5339499607198664E-16   8   8   7   6
  -0.5629551908045705E-16   8   1   7   7
   0.1386885747278219E-15   8   2   7   7
   0.6014491727919293E-16   8   3   7   7
  -0.4064815063865988E-16   8   4   7   7
  -0.3747002708109903E-15   8   5   7   7
  -0.1692684502705012E-15   8   6   7   7
   0.7955601805852308E-16   8   7   7   7
   0.4834411854644396E+00   8   8   7   7
   0.1339622581052620E-01   8   1   8   1
  -0.1638448017125989E-14   8   2   8   1
   0.1335929853344837E-01   8   3   8   1
  -0.4189477811975678E-13   8   4   8   1
   0.1652965033967793E-16   8   5   8   1
  -0.1044966379076190E-16   8   6   8   1
   0.6710475544826607E-02   8   7   8   1
  -0.6356188970795098E-16   8   8   8   1
   0.1407087367022068E-01   8   2   8   2
   0.3206348354141061E-13   8   3   8   2
   0.1742849322043480E-01   8   4   8   2
   0.1029766561760932E-15   8   5   8   2
   0.6021843797207176E-16   8   6   8   2
   0.1612666705903820E-13   8   7   8   2
   0.1376586261584449E-15   8   8   8   2
   0.4320388235849369E-01   8   3   8   3
  -0.5811323644522304E-16   8   4   8   3
  -0.6299216544484556E-16   8   5   8   3
  -0.2900244292565122E-16   8   6   8   3
   0.2074242675735464E-01   8   7   8   3
   0.4770154457818049E-16   8   8   8   3
   0.7233049558563918E-01   8   4   8   4
  -0.4512939869723970E-15   8   5   8   4
   0.1773201806466874E-15   8   6   8   4
   0.6158268339717665E-16   8   7   8   4
  -0.1164079903728162E-15   8   8   8   4
   0.1652025555073902E+00   8   5   8   5
   0.3705116627401107E-15   8   6   8   5
  -0.1375142987093689E-15   8   7   8   5
  -0.4718447854656921E-15   8   8   8   5
   0.1673185649829795E-01   8   6   8   6
  -0.2249152609750789E-16   8   7   8   6
  -0.1892487296933127E-15   8   8   8   6
   0.2887578998846061E-01   8   7   8   7
   0.8108674102133974E-16   8   8   8   7
   0.5339206895088040E+00   8   8   8   8
   0.9248304578251806E-16   9   1   1   1
  -0.3236637835501984E-16   9   2   1   1
  -0.1191550512997050E-17   9   3   1   1
   0.2833603596120486E-16   9   4   1   1
  -0.2971075500168553E-16   9   5   1   1
   0.1164214449671241E-11   9   6   1   1
  -0.9541167866439455E-17   9   7   1   1
   0.1640455569669095E-15   9   8   1   1
   0.6420552967050710E+00   9   9   1   1
  -0.1466504829948460E-15   9   1   2   1
   0.3550901472708500E-16   9   2   2   1
  -0.1648194710299727E-16   9   3   2   1
   0.8411672225704029E-15   9   4   2   1
   0.8645288324406157E-15   9   5   2   1
  -0.2420869003576268E+00   9   6   2   1
  -0.1233150088273387E-15   9   7   2   1
  -0.1910079448400428E-15   9   8   2   1
  -0.9992007221626409E-15   9   9   2   1
   0.8849050086104631E-16   9   1   2   2
  -0.2534129118582508E-16   9   2   2   2
  -0.5260973886353992E-17   9   3   2   2
   0.3709678645145510E-16   9   4   2   2
  -0.2971010128918864E-16   9   5   2   2
  -0.1163386281841788E-11   9   6   2   2
  -0.1151830219698806E-16   9   7   2   2
   0.1640559444611519E-15   9   8   2   2
   0.6420959521607890E+00   9   9   2   2
  -0.6985151969996061E-17   9   1   3   1
   0.8461670842655618E-17   9   2   3   1
   0.2978497772826569E-18   9   3   3   1
  -0.2093701780738751E-16   9   4   3   1
   0.1339951291242751E-17   9   5   3   1
  -0.1999968116464523E-13   9   6   3   1
   0.3481425886635834E-17   9   7   3   1
  -0.1648831445552573E-17   9   8   3   1
  -0.6453335174449517E-02   9   9   3   1
   0.1523163344246379E-16   9   1   3   2
  -0.8403805864637165E-17   9   2   3   2
  -0.1886468158901810E-17   9   3   3   2
  -0.3565260202385287E-16   9   4   3   2
  -0.2964944149176053E-16   9   5   3   2
   0.8302489308323807E-02   9   6   3   2
   0.2361633298707144E-17   9   7   3   2
   0.6550711407745309E-17   9   8   3   2
  -0.1534189442153888E-13   9   9   3   2
   0.3054806228026586E-16   9   1   3   3